Topology of CG heptane translated from gromacs input

 1602 atoms
 1335 bonds
 267 angles
 0 dihedrals
 0 impropers

 4 atom types
 3 bond types
 1 angle types
 0 dihedral types
 0 improper types

 0.000000 48.461900 xlo xhi
 0.000000 48.461900 ylo yhi
 0.000000 48.461900 zlo zhi


 
Bond Coeffs

 1  lammps_bond_CT-CM.table LJLJ # CT-CM
 2  lammps_bond_CB-CB.table LJLJ # CB-CB
 3  lammps_bond_CF-CB.table LJLJ # CF-CB
 
Angle Coeffs

 1  lammps_angle_CT-CM-CT.table LJLJ # CT-CM


Masses

 1 29.06200 # CT
 2 42.08100 # CM
 3 27.04522 # CF
 4 13.01864 # CB


Atoms

 1 1 1 0.0 18.870000 10.170000 15.920000 # CT
 2 1 2 0.0 19.060000 7.500000 14.570000 # CM
 3 1 1 0.0 18.230000 4.590000 15.130000 # CT
 4 1 1 0.0 28.090000 30.700000 11.490000 # CT
 5 1 2 0.0 27.030000 31.610000 14.370000 # CM
 6 1 1 0.0 27.060000 32.560000 17.250000 # CT
 7 1 1 0.0 2.060000 18.840000 41.540000 # CT
 8 1 2 0.0 0.290000 18.630000 39.120000 # CM
 9 1 1 0.0 -1.980000 16.850000 38.060000 # CT
 10 1 1 0.0 29.540000 5.470000 1.350000 # CT
 11 1 2 0.0 29.990000 5.630000 -1.890000 # CM
 12 1 1 0.0 29.800000 6.660000 -4.670000 # CT
 13 1 1 0.0 3.010000 40.380000 40.210000 # CT
 14 1 2 0.0 3.260000 37.410000 39.910000 # CM
 15 1 1 0.0 4.170000 34.530000 39.700000 # CT
 16 1 1 0.0 16.520000 4.340000 44.000000 # CT
 17 1 2 0.0 17.270000 3.310000 41.070000 # CM
 18 1 1 0.0 18.210000 2.800000 38.040000 # CT
 19 1 1 0.0 34.610000 13.100000 26.600000 # CT
 20 1 2 0.0 33.880000 15.450000 24.400000 # CM
 21 1 1 0.0 33.710000 18.290000 24.280000 # CT
 22 1 1 0.0 14.460000 1.300000 22.600000 # CT
 23 1 2 0.0 11.770000 0.630000 20.970000 # CM
 24 1 1 0.0 9.470000 0.150000 18.850000 # CT
 25 1 1 0.0 39.020000 33.900000 37.300000 # CT
 26 1 2 0.0 37.700000 31.070000 38.240000 # CM
 27 1 1 0.0 36.960000 28.110000 39.000000 # CT
 28 1 1 0.0 31.260000 9.280000 35.210000 # CT
 29 1 2 0.0 31.300000 11.510000 37.590000 # CM
 30 1 1 0.0 32.670000 12.560000 40.130000 # CT
 31 1 1 0.0 21.290000 30.890000 43.940000 # CT
 32 1 2 0.0 21.800000 34.080000 44.100000 # CM
 33 1 1 0.0 22.140000 37.220000 44.960000 # CT
 34 1 1 0.0 47.580000 43.760000 48.340000 # CT
 35 1 2 0.0 44.960000 44.870000 49.530000 # CM
 36 1 1 0.0 43.310000 46.000000 52.090000 # CT
 37 1 1 0.0 47.450000 44.960000 40.540000 # CT
 38 1 2 0.0 46.240000 43.520000 43.250000 # CM
 39 1 1 0.0 46.360000 40.640000 44.200000 # CT
 40 1 1 0.0 5.950000 48.180000 42.500000 # CT
 41 1 2 0.0 8.960000 47.620000 43.340000 # CM
 42 1 1 0.0 11.580000 48.250000 45.200000 # CT
 43 1 1 0.0 27.280000 5.290000 31.930000 # CT
 44 1 2 0.0 27.790000 8.460000 31.630000 # CM
 45 1 1 0.0 28.760000 11.550000 31.460000 # CT
 46 1 1 0.0 3.440000 0.710000 7.010000 # CT
 47 1 2 0.0 3.420000 2.390000 9.660000 # CM
 48 1 1 0.0 1.700000 4.160000 10.990000 # CT
 49 1 1 0.0 19.780000 36.200000 8.080000 # CT
 50 1 2 0.0 22.430000 36.040000 7.940000 # CM
 51 1 1 0.0 24.230000 38.180000 9.040000 # CT
 52 1 1 0.0 18.990000 9.140000 37.350000 # CT
 53 1 2 0.0 19.380000 6.550000 35.730000 # CM
 54 1 1 0.0 19.690000 4.450000 33.500000 # CT
 55 1 1 0.0 37.310000 45.580000 14.600000 # CT
 56 1 2 0.0 37.320000 42.950000 15.950000 # CM
 57 1 1 0.0 35.710000 40.090000 16.690000 # CT
 58 1 1 0.0 11.610000 28.870000 32.110000 # CT
 59 1 2 0.0 11.910000 31.780000 32.210000 # CM
 60 1 1 0.0 14.390000 33.950000 32.000000 # CT
 61 1 1 0.0 43.990000 5.900000 14.060000 # CT
 62 1 2 0.0 41.630000 3.750000 13.980000 # CM
 63 1 1 0.0 40.240000 0.980000 13.890000 # CT
 64 1 1 0.0 42.400000 44.050000 38.660000 # CT
 65 1 2 0.0 40.250000 45.450000 36.740000 # CM
 66 1 1 0.0 39.290000 46.780000 34.160000 # CT
 67 1 1 0.0 37.500000 10.230000 29.130000 # CT
 68 1 2 0.0 35.280000 8.390000 28.450000 # CM
 69 1 1 0.0 31.980000 8.750000 28.920000 # CT
 70 1 1 0.0 47.740000 48.450000 2.510000 # CT
 71 1 2 0.0 45.670000 50.520000 1.920000 # CM
 72 1 1 0.0 42.610000 51.050000 0.930000 # CT
 73 1 1 0.0 33.830000 10.210000 23.700000 # CT
 74 1 2 0.0 31.630000 10.840000 21.310000 # CM
 75 1 1 0.0 29.480000 12.270000 19.340000 # CT
 76 1 1 0.0 9.400000 15.620000 14.200000 # CT
 77 1 2 0.0 11.570000 16.490000 16.200000 # CM
 78 1 1 0.0 13.390000 15.320000 18.490000 # CT
 79 1 1 0.0 45.880000 9.900000 29.200000 # CT
 80 1 2 0.0 46.080000 12.620000 27.410000 # CM
 81 1 1 0.0 45.920000 15.140000 25.450000 # CT
 82 1 1 0.0 40.930000 13.490000 42.050000 # CT
 83 1 2 0.0 43.220000 11.800000 43.250000 # CM
 84 1 1 0.0 43.800000 9.320000 45.290000 # CT
 85 1 1 0.0 13.100000 31.860000 27.090000 # CT
 86 1 2 0.0 10.640000 31.860000 26.420000 # CM
 87 1 1 0.0 8.760000 34.630000 26.220000 # CT
 88 1 1 0.0 0.320000 11.530000 21.580000 # CT
 89 1 2 0.0 0.750000 10.000000 18.720000 # CM
 90 1 1 0.0 1.370000 7.870000 16.240000 # CT
 91 1 1 0.0 1.100000 32.560000 28.710000 # CT
 92 1 2 0.0 3.110000 35.080000 28.100000 # CM
 93 1 1 0.0 5.380000 37.340000 27.450000 # CT
 94 1 1 0.0 29.530000 19.570000 12.970000 # CT
 95 1 2 0.0 26.480000 20.620000 13.610000 # CM
 96 1 1 0.0 24.580000 22.710000 14.700000 # CT
 97 1 1 0.0 39.160000 33.300000 29.330000 # CT
 98 1 2 0.0 36.780000 31.040000 29.620000 # CM
 99 1 1 0.0 35.120000 29.090000 31.020000 # CT
 100 1 1 0.0 7.130000 37.190000 9.620000 # CT
 101 1 2 0.0 10.010000 37.080000 9.150000 # CM
 102 1 1 0.0 12.590000 36.010000 8.280000 # CT
 103 1 1 0.0 32.950000 39.020000 11.200000 # CT
 104 1 2 0.0 35.590000 40.070000 11.850000 # CM
 105 1 1 0.0 37.500000 42.580000 10.710000 # CT
 106 1 1 0.0 39.070000 13.560000 19.470000 # CT
 107 1 2 0.0 37.740000 16.390000 20.550000 # CM
 108 1 1 0.0 35.810000 18.650000 20.060000 # CT
 109 1 1 0.0 39.640000 21.260000 4.310000 # CT
 110 1 2 0.0 39.950000 20.440000 7.040000 # CM
 111 1 1 0.0 38.450000 18.430000 9.200000 # CT
 112 1 1 0.0 46.260000 14.720000 42.890000 # CT
 113 1 2 0.0 43.780000 16.750000 42.060000 # CM
 114 1 1 0.0 41.270000 18.650000 41.600000 # CT
 115 1 1 0.0 27.460000 46.850000 40.850000 # CT
 116 1 2 0.0 27.040000 44.700000 38.940000 # CM
 117 1 1 0.0 28.640000 42.350000 37.490000 # CT
 118 1 1 0.0 9.540000 29.120000 18.120000 # CT
 119 1 2 0.0 11.680000 27.320000 17.450000 # CM
 120 1 1 0.0 13.530000 25.090000 18.610000 # CT
 121 1 1 0.0 7.260000 31.020000 39.440000 # CT
 122 1 2 0.0 8.230000 28.730000 37.820000 # CM
 123 1 1 0.0 7.840000 26.300000 35.770000 # CT
 124 1 1 0.0 40.150000 48.960000 23.160000 # CT
 125 1 2 0.0 39.450000 51.600000 24.080000 # CM
 126 1 1 0.0 39.690000 53.320000 26.870000 # CT
 127 1 1 0.0 2.900000 10.860000 11.720000 # CT
 128 1 2 0.0 1.270000 12.490000 13.720000 # CM
 129 1 1 0.0 -0.480000 14.520000 14.840000 # CT
 130 1 1 0.0 23.810000 36.470000 27.780000 # CT
 131 1 2 0.0 25.560000 39.230000 28.340000 # CM
 132 1 1 0.0 25.310000 42.280000 28.680000 # CT
 133 1 1 0.0 8.600000 37.360000 3.680000 # CT
 134 1 2 0.0 11.170000 35.610000 2.910000 # CM
 135 1 1 0.0 13.690000 35.140000 1.350000 # CT
 136 1 1 0.0 10.850000 37.720000 14.030000 # CT
 137 1 2 0.0 9.010000 35.110000 14.730000 # CM
 138 1 1 0.0 6.840000 32.930000 14.800000 # CT
 139 1 1 0.0 43.160000 30.600000 3.120000 # CT
 140 1 2 0.0 41.600000 27.880000 3.080000 # CM
 141 1 1 0.0 39.770000 25.380000 2.750000 # CT
 142 1 1 0.0 13.450000 22.040000 1.720000 # CT
 143 1 2 0.0 13.690000 22.640000 4.650000 # CM
 144 1 1 0.0 15.220000 22.530000 7.440000 # CT
 145 1 1 0.0 45.970000 19.480000 23.850000 # CT
 146 1 2 0.0 46.870000 21.440000 26.280000 # CM
 147 1 1 0.0 48.740000 23.260000 28.260000 # CT
 148 1 1 0.0 22.870000 1.830000 38.130000 # CT
 149 1 2 0.0 25.830000 2.200000 39.560000 # CM
 150 1 1 0.0 28.830000 2.250000 40.690000 # CT
 151 1 1 0.0 15.080000 2.940000 10.410000 # CT
 152 1 2 0.0 17.280000 5.320000 10.640000 # CM
 153 1 1 0.0 19.810000 7.110000 9.900000 # CT
 154 1 1 0.0 34.680000 17.680000 7.900000 # CT
 155 1 2 0.0 31.900000 19.440000 8.040000 # CM
 156 1 1 0.0 29.280000 19.540000 6.810000 # CT
 157 1 1 0.0 27.510000 42.520000 43.260000 # CT
 158 1 2 0.0 27.350000 39.740000 41.620000 # CM
 159 1 1 0.0 27.680000 36.880000 39.990000 # CT
 160 1 1 0.0 3.780000 34.430000 17.770000 # CT
 161 1 2 0.0 5.890000 34.550000 19.910000 # CM
 162 1 1 0.0 6.230000 34.260000 23.190000 # CT
 163 1 1 0.0 9.320000 26.620000 28.530000 # CT
 164 1 2 0.0 7.040000 27.220000 30.790000 # CM
 165 1 1 0.0 4.970000 28.390000 32.910000 # CT
 166 1 1 0.0 11.700000 2.890000 6.980000 # CT
 167 1 2 0.0 13.030000 5.670000 7.540000 # CM
 168 1 1 0.0 14.740000 8.400000 7.630000 # CT
 169 1 1 0.0 10.920000 11.700000 24.770000 # CT
 170 1 2 0.0 11.630000 8.780000 24.730000 # CM
 171 1 1 0.0 11.540000 5.880000 23.250000 # CT
 172 1 1 0.0 22.450000 33.110000 30.920000 # CT
 173 1 2 0.0 20.010000 32.180000 29.010000 # CM
 174 1 1 0.0 17.520000 30.490000 28.630000 # CT
 175 1 1 0.0 44.760000 42.160000 27.300000 # CT
 176 1 2 0.0 45.240000 39.140000 27.230000 # CM
 177 1 1 0.0 46.970000 37.870000 29.240000 # CT
 178 1 1 0.0 41.410000 7.910000 18.700000 # CT
 179 1 2 0.0 40.670000 4.810000 19.150000 # CM
 180 1 1 0.0 39.440000 1.750000 18.820000 # CT
 181 1 1 0.0 9.610000 15.440000 27.060000 # CT
 182 1 2 0.0 12.760000 16.140000 27.350000 # CM
 183 1 1 0.0 14.910000 17.360000 29.100000 # CT
 184 1 1 0.0 32.010000 4.090000 39.340000 # CT
 185 1 2 0.0 32.930000 3.720000 36.380000 # CM
 186 1 1 0.0 33.060000 3.720000 33.450000 # CT
 187 1 1 0.0 18.570000 16.120000 44.880000 # CT
 188 1 2 0.0 18.500000 14.130000 42.540000 # CM
 189 1 1 0.0 16.840000 12.800000 40.460000 # CT
 190 1 1 0.0 2.190000 23.460000 40.060000 # CT
 191 1 2 0.0 -0.190000 24.560000 41.510000 # CM
 192 1 1 0.0 -3.090000 24.910000 40.880000 # CT
 193 1 1 0.0 34.800000 25.230000 42.760000 # CT
 194 1 2 0.0 35.800000 25.860000 45.470000 # CM
 195 1 1 0.0 38.410000 26.450000 47.010000 # CT
 196 1 1 0.0 1.330000 40.210000 2.580000 # CT
 197 1 2 0.0 1.990000 39.430000 -0.500000 # CM
 198 1 1 0.0 2.340000 38.480000 -3.580000 # CT
 199 1 1 0.0 0.750000 2.320000 32.480000 # CT
 200 1 2 0.0 -2.350000 2.620000 32.160000 # CM
 201 1 1 0.0 -5.390000 3.210000 32.870000 # CT
 202 1 1 0.0 31.790000 47.780000 30.830000 # CT
 203 1 2 0.0 34.120000 47.240000 32.580000 # CM
 204 1 1 0.0 35.630000 48.290000 35.320000 # CT
 205 1 1 0.0 18.860000 11.730000 10.050000 # CT
 206 1 2 0.0 19.610000 14.240000 11.590000 # CM
 207 1 1 0.0 22.110000 15.960000 11.870000 # CT
 208 1 1 0.0 19.680000 -0.600000 34.560000 # CT
 209 1 2 0.0 18.620000 -3.410000 33.720000 # CM
 210 1 1 0.0 19.000000 -6.410000 34.340000 # CT
 211 1 1 0.0 30.930000 47.240000 3.610000 # CT
 212 1 2 0.0 31.330000 45.040000 5.870000 # CM
 213 1 1 0.0 32.210000 42.490000 7.670000 # CT
 214 1 1 0.0 16.950000 24.320000 48.470000 # CT
 215 1 2 0.0 16.990000 26.980000 47.270000 # CM
 216 1 1 0.0 17.860000 29.030000 44.850000 # CT
 217 1 1 0.0 44.160000 48.720000 23.270000 # CT
 218 1 2 0.0 44.040000 51.390000 25.180000 # CM
 219 1 1 0.0 43.900000 53.950000 27.090000 # CT
 220 1 1 0.0 11.560000 45.070000 5.460000 # CT
 221 1 2 0.0 12.460000 46.920000 8.010000 # CM
 222 1 1 0.0 11.370000 48.230000 10.300000 # CT
 223 1 1 0.0 7.130000 45.790000 30.480000 # CT
 224 1 2 0.0 9.840000 44.910000 28.900000 # CM
 225 1 1 0.0 12.120000 46.110000 27.410000 # CT
 226 1 1 0.0 2.660000 22.930000 14.350000 # CT
 227 1 2 0.0 2.280000 19.840000 13.290000 # CM
 228 1 1 0.0 2.930000 16.860000 12.220000 # CT
 229 1 1 0.0 28.930000 40.320000 14.930000 # CT
 230 1 2 0.0 30.770000 42.310000 13.200000 # CM
 231 1 1 0.0 33.120000 44.360000 12.130000 # CT
 232 1 1 0.0 7.950000 12.990000 36.700000 # CT
 233 1 2 0.0 6.850000 9.950000 36.220000 # CM
 234 1 1 0.0 6.800000 6.950000 36.610000 # CT
 235 1 1 0.0 32.210000 36.550000 37.260000 # CT
 236 1 2 0.0 33.840000 38.850000 38.240000 # CM
 237 1 1 0.0 36.810000 39.840000 37.450000 # CT
 238 1 1 0.0 26.560000 11.760000 46.000000 # CT
 239 1 2 0.0 25.100000 14.720000 46.240000 # CM
 240 1 1 0.0 22.840000 16.630000 46.590000 # CT
 241 1 1 0.0 9.030000 7.770000 7.430000 # CT
 242 1 2 0.0 10.700000 10.460000 6.470000 # CM
 243 1 1 0.0 12.470000 13.170000 5.900000 # CT
 244 1 1 0.0 32.290000 33.870000 4.740000 # CT
 245 1 2 0.0 29.070000 33.510000 4.070000 # CM
 246 1 1 0.0 26.270000 33.580000 2.650000 # CT
 247 1 1 0.0 40.730000 47.780000 46.610000 # CT
 248 1 2 0.0 43.980000 48.210000 46.330000 # CM
 249 1 1 0.0 46.890000 47.580000 46.370000 # CT
 250 1 1 0.0 8.820000 1.830000 37.990000 # CT
 251 1 2 0.0 6.640000 2.310000 39.760000 # CM
 252 1 1 0.0 4.000000 4.050000 40.670000 # CT
 253 1 1 0.0 14.040000 10.560000 21.670000 # CT
 254 1 2 0.0 13.710000 13.600000 22.280000 # CM
 255 1 1 0.0 11.360000 15.800000 23.260000 # CT
 256 1 1 0.0 40.570000 30.730000 33.540000 # CT
 257 1 2 0.0 43.430000 31.070000 32.800000 # CM
 258 1 1 0.0 46.000000 30.120000 34.540000 # CT
 259 1 1 0.0 36.300000 23.440000 31.110000 # CT
 260 1 2 0.0 38.140000 25.960000 30.480000 # CM
 261 1 1 0.0 40.550000 28.260000 30.530000 # CT
 262 1 1 0.0 20.400000 21.790000 18.350000 # CT
 263 1 2 0.0 19.970000 23.800000 16.080000 # CM
 264 1 1 0.0 21.590000 24.910000 13.470000 # CT
 265 1 1 0.0 17.010000 26.540000 9.600000 # CT
 266 1 2 0.0 19.050000 24.570000 9.680000 # CM
 267 1 1 0.0 22.200000 24.390000 8.960000 # CT
 268 1 1 0.0 47.060000 35.660000 42.160000 # CT
 269 1 2 0.0 46.120000 34.830000 45.200000 # CM
 270 1 1 0.0 44.720000 33.870000 48.020000 # CT
 271 1 1 0.0 17.420000 48.050000 9.370000 # CT
 272 1 2 0.0 15.610000 46.520000 11.110000 # CM
 273 1 1 0.0 16.180000 44.630000 13.430000 # CT
 274 1 1 0.0 40.210000 25.660000 19.600000 # CT
 275 1 2 0.0 40.300000 22.430000 19.410000 # CM
 276 1 1 0.0 41.410000 20.310000 17.600000 # CT
 277 1 1 0.0 43.590000 45.860000 30.960000 # CT
 278 1 2 0.0 46.170000 43.750000 31.110000 # CM
 279 1 1 0.0 48.190000 41.300000 31.670000 # CT
 280 1 1 0.0 19.140000 20.470000 22.800000 # CT
 281 1 2 0.0 21.690000 18.410000 22.700000 # CM
 282 1 1 0.0 22.070000 15.760000 21.370000 # CT
 283 1 1 0.0 42.940000 21.980000 39.370000 # CT
 284 1 2 0.0 45.030000 21.600000 36.960000 # CM
 285 1 1 0.0 47.760000 21.610000 35.740000 # CT
 286 1 1 0.0 9.210000 43.770000 21.850000 # CT
 287 1 2 0.0 9.130000 41.440000 20.000000 # CM
 288 1 1 0.0 8.220000 39.670000 17.360000 # CT
 289 1 1 0.0 10.030000 9.130000 19.710000 # CT
 290 1 2 0.0 7.920000 8.820000 17.570000 # CM
 291 1 1 0.0 5.440000 10.290000 16.730000 # CT
 292 1 1 0.0 22.330000 17.510000 16.870000 # CT
 293 1 2 0.0 24.340000 19.830000 18.010000 # CM
 294 1 1 0.0 26.350000 22.020000 19.440000 # CT
 295 1 1 0.0 47.790000 11.470000 39.380000 # CT
 296 1 2 0.0 49.630000 12.210000 41.920000 # CM
 297 1 1 0.0 51.100000 11.320000 44.400000 # CT
 298 1 1 0.0 24.420000 17.570000 26.290000 # CT
 299 1 2 0.0 25.470000 15.000000 24.720000 # CM
 300 1 1 0.0 25.790000 13.510000 22.270000 # CT
 301 1 1 0.0 17.950000 19.460000 5.710000 # CT
 302 1 2 0.0 20.330000 21.290000 5.350000 # CM
 303 1 1 0.0 23.490000 21.580000 5.990000 # CT
 304 1 1 0.0 33.450000 6.900000 19.590000 # CT
 305 1 2 0.0 30.380000 6.920000 18.980000 # CM
 306 1 1 0.0 28.080000 8.460000 17.860000 # CT
 307 1 1 0.0 39.940000 8.090000 35.560000 # CT
 308 1 2 0.0 41.210000 5.420000 36.850000 # CM
 309 1 1 0.0 42.050000 4.540000 39.570000 # CT
 310 1 1 0.0 41.320000 22.120000 0.170000 # CT
 311 1 2 0.0 40.360000 22.470000 -2.910000 # CM
 312 1 1 0.0 39.780000 23.480000 -5.890000 # CT
 313 1 1 0.0 35.040000 22.430000 24.250000 # CT
 314 1 2 0.0 36.340000 24.510000 22.510000 # CM
 315 1 1 0.0 36.780000 27.640000 21.460000 # CT
 316 1 1 0.0 42.340000 32.580000 19.780000 # CT
 317 1 2 0.0 42.090000 30.060000 18.180000 # CM
 318 1 1 0.0 40.680000 28.590000 15.780000 # CT
 319 1 1 0.0 2.360000 30.650000 42.230000 # CT
 320 1 2 0.0 -0.790000 30.220000 42.380000 # CM
 321 1 1 0.0 -4.110000 30.290000 42.970000 # CT
 322 1 1 0.0 35.820000 30.850000 45.600000 # CT
 323 1 2 0.0 37.990000 29.280000 43.710000 # CM
 324 1 1 0.0 40.660000 28.230000 42.130000 # CT
 325 1 1 0.0 46.320000 33.830000 5.200000 # CT
 326 1 2 0.0 47.340000 30.910000 6.190000 # CM
 327 1 1 0.0 47.820000 27.930000 7.200000 # CT
 328 1 1 0.0 41.610000 41.470000 18.120000 # CT
 329 1 2 0.0 40.510000 38.470000 17.520000 # CM
 330 1 1 0.0 39.180000 35.730000 16.570000 # CT
 331 1 1 0.0 0.310000 8.620000 25.470000 # CT
 332 1 2 0.0 -2.530000 8.100000 24.090000 # CM
 333 1 1 0.0 -5.500000 7.790000 22.930000 # CT
 334 1 1 0.0 34.710000 36.280000 15.350000 # CT
 335 1 2 0.0 31.760000 36.080000 13.920000 # CM
 336 1 1 0.0 28.640000 36.540000 13.100000 # CT
 337 1 1 0.0 4.330000 18.820000 1.550000 # CT
 338 1 2 0.0 2.170000 18.480000 3.050000 # CM
 339 1 1 0.0 2.590000 15.650000 3.790000 # CT
 340 1 1 0.0 29.980000 24.000000 32.660000 # CT
 341 1 2 0.0 31.970000 23.100000 30.110000 # CM
 342 1 1 0.0 30.980000 22.820000 27.790000 # CT
 343 1 1 0.0 21.980000 18.580000 33.960000 # CT
 344 1 2 0.0 21.090000 20.600000 31.940000 # CM
 345 1 1 0.0 18.320000 21.890000 30.750000 # CT
 346 1 1 0.0 28.520000 7.480000 39.800000 # CT
 347 1 2 0.0 25.780000 6.310000 40.000000 # CM
 348 1 1 0.0 22.710000 5.960000 39.050000 # CT
 349 1 1 0.0 11.190000 12.320000 47.300000 # CT
 350 1 2 0.0 12.770000 14.230000 45.150000 # CM
 351 1 1 0.0 14.280000 16.210000 43.100000 # CT
 352 1 1 0.0 30.660000 24.260000 8.660000 # CT
 353 1 2 0.0 28.340000 24.310000 6.430000 # CM
 354 1 1 0.0 25.570000 24.950000 5.750000 # CT
 355 1 1 0.0 1.470000 40.520000 16.980000 # CT
 356 1 2 0.0 -0.710000 42.650000 16.690000 # CM
 357 1 1 0.0 -2.200000 45.540000 17.280000 # CT
 358 1 1 0.0 29.790000 27.070000 19.000000 # CT
 359 1 2 0.0 29.520000 29.940000 20.420000 # CM
 360 1 1 0.0 28.820000 32.870000 21.660000 # CT
 361 1 1 0.0 11.740000 40.600000 40.140000 # CT
 362 1 2 0.0 14.770000 41.300000 40.360000 # CM
 363 1 1 0.0 17.810000 42.190000 40.760000 # CT
 364 1 1 0.0 2.920000 1.510000 48.400000 # CT
 365 1 2 0.0 4.060000 3.300000 50.880000 # CM
 366 1 1 0.0 5.180000 4.940000 53.480000 # CT
 367 1 1 0.0 38.280000 43.940000 25.480000 # CT
 368 1 2 0.0 36.000000 44.980000 23.410000 # CM
 369 1 1 0.0 33.760000 46.170000 21.410000 # CT
 370 1 1 0.0 18.070000 38.030000 1.620000 # CT
 371 1 2 0.0 16.040000 39.000000 -0.670000 # CM
 372 1 1 0.0 14.080000 39.880000 -3.150000 # CT
 373 1 1 0.0 3.430000 23.650000 31.380000 # CT
 374 1 2 0.0 1.300000 25.450000 32.560000 # CM
 375 1 1 0.0 0.640000 28.600000 33.130000 # CT
 376 1 1 0.0 25.030000 11.530000 2.110000 # CT
 377 1 2 0.0 26.110000 14.710000 2.340000 # CM
 378 1 1 0.0 26.880000 17.870000 1.970000 # CT
 379 1 1 0.0 22.150000 46.340000 16.770000 # CT
 380 1 2 0.0 23.590000 44.870000 14.520000 # CM
 381 1 1 0.0 25.100000 42.300000 13.240000 # CT
 382 1 1 0.0 4.360000 30.490000 21.420000 # CT
 383 1 2 0.0 1.920000 31.280000 19.350000 # CM
 384 1 1 0.0 -0.940000 31.140000 19.490000 # CT
 385 1 1 0.0 9.010000 41.530000 32.670000 # CT
 386 1 2 0.0 11.980000 42.750000 32.260000 # CM
 387 1 1 0.0 15.000000 43.730000 31.840000 # CT
 388 1 1 0.0 1.470000 27.130000 23.790000 # CT
 389 1 2 0.0 -1.430000 28.590000 24.100000 # CM
 390 1 1 0.0 -4.530000 29.550000 24.330000 # CT
 391 1 1 0.0 34.060000 8.310000 0.150000 # CT
 392 1 2 0.0 34.880000 6.280000 -2.170000 # CM
 393 1 1 0.0 34.870000 4.270000 -4.690000 # CT
 394 1 1 0.0 33.880000 20.650000 33.790000 # CT
 395 1 2 0.0 36.040000 21.050000 35.920000 # CM
 396 1 1 0.0 37.920000 22.130000 37.890000 # CT
 397 1 1 0.0 22.390000 29.690000 37.480000 # CT
 398 1 2 0.0 24.200000 27.670000 38.590000 # CM
 399 1 1 0.0 23.820000 25.120000 40.620000 # CT
 400 1 1 0.0 9.670000 1.790000 13.750000 # CT
 401 1 2 0.0 12.540000 1.320000 15.140000 # CM
 402 1 1 0.0 14.260000 2.430000 17.120000 # CT
 403 1 1 0.0 24.970000 25.660000 21.870000 # CT
 404 1 2 0.0 24.640000 26.170000 18.620000 # CM
 405 1 1 0.0 24.690000 27.880000 16.180000 # CT
 406 1 1 0.0 3.790000 44.240000 27.280000 # CT
 407 1 2 0.0 0.860000 44.110000 26.540000 # CM
 408 1 1 0.0 -2.100000 45.150000 25.460000 # CT
 409 1 1 0.0 23.690000 12.030000 13.790000 # CT
 410 1 2 0.0 25.620000 14.480000 14.580000 # CM
 411 1 1 0.0 28.410000 15.710000 14.860000 # CT
 412 1 1 0.0 27.120000 23.380000 24.740000 # CT
 413 1 2 0.0 24.100000 22.770000 25.740000 # CM
 414 1 1 0.0 21.370000 21.630000 27.160000 # CT
 415 1 1 0.0 41.520000 15.610000 8.080000 # CT
 416 1 2 0.0 43.470000 16.940000 10.480000 # CM
 417 1 1 0.0 46.260000 17.840000 11.340000 # CT
 418 1 1 0.0 11.220000 46.240000 40.190000 # CT
 419 1 2 0.0 9.970000 46.020000 37.470000 # CM
 420 1 1 0.0 8.220000 43.980000 35.940000 # CT
 421 1 1 0.0 28.380000 3.980000 19.290000 # CT
 422 1 2 0.0 25.320000 3.770000 20.440000 # CM
 423 1 1 0.0 22.960000 4.070000 22.170000 # CT
 424 1 1 0.0 10.810000 20.360000 45.670000 # CT
 425 1 2 0.0 9.550000 17.330000 45.040000 # CM
 426 1 1 0.0 7.870000 14.580000 44.610000 # CT
 427 1 1 0.0 15.540000 45.340000 37.180000 # CT
 428 1 2 0.0 14.430000 48.210000 36.850000 # CM
 429 1 1 0.0 13.710000 50.890000 35.600000 # CT
 430 1 1 0.0 6.960000 28.330000 26.010000 # CT
 431 1 2 0.0 4.480000 29.670000 26.720000 # CM
 432 1 1 0.0 1.720000 28.580000 28.290000 # CT
 433 1 1 0.0 5.190000 14.620000 33.410000 # CT
 434 1 2 0.0 4.460000 11.460000 32.530000 # CM
 435 1 1 0.0 3.500000 8.420000 31.750000 # CT
 436 1 1 0.0 21.330000 27.480000 24.770000 # CT
 437 1 2 0.0 21.320000 27.650000 28.080000 # CM
 438 1 1 0.0 20.560000 25.810000 30.220000 # CT
 439 1 1 0.0 2.820000 3.510000 23.630000 # CT
 440 1 2 0.0 2.130000 4.420000 26.670000 # CM
 441 1 1 0.0 0.380000 5.340000 29.020000 # CT
 442 1 1 0.0 38.830000 2.340000 31.750000 # CT
 443 1 2 0.0 37.100000 2.340000 29.330000 # CM
 444 1 1 0.0 36.030000 0.540000 26.760000 # CT
 445 1 1 0.0 37.160000 42.060000 43.150000 # CT
 446 1 2 0.0 36.900000 45.140000 44.190000 # CM
 447 1 1 0.0 36.730000 48.310000 44.670000 # CT
 448 1 1 0.0 20.990000 11.760000 46.410000 # CT
 449 1 2 0.0 21.850000 11.820000 43.260000 # CM
 450 1 1 0.0 22.550000 11.850000 40.120000 # CT
 451 1 1 0.0 40.820000 44.540000 8.490000 # CT
 452 1 2 0.0 39.940000 43.310000 6.000000 # CM
 453 1 1 0.0 37.020000 41.930000 5.330000 # CT
 454 1 1 0.0 37.390000 38.710000 30.020000 # CT
 455 1 2 0.0 35.350000 36.630000 29.210000 # CM
 456 1 1 0.0 35.160000 34.350000 27.200000 # CT
 457 1 1 0.0 24.360000 34.070000 38.570000 # CT
 458 1 2 0.0 25.990000 31.890000 39.780000 # CM
 459 1 1 0.0 25.200000 30.180000 42.150000 # CT
 460 1 1 0.0 26.490000 0.820000 23.980000 # CT
 461 1 2 0.0 27.920000 -1.240000 25.490000 # CM
 462 1 1 0.0 29.190000 -3.760000 24.810000 # CT
 463 1 1 0.0 30.480000 35.470000 17.900000 # CT
 464 1 2 0.0 30.790000 38.590000 19.030000 # CM
 465 1 1 0.0 30.790000 41.920000 19.450000 # CT
 466 1 1 0.0 23.280000 24.930000 2.340000 # CT
 467 1 2 0.0 26.220000 25.180000 1.100000 # CM
 468 1 1 0.0 29.430000 24.670000 0.540000 # CT
 469 1 1 0.0 13.250000 31.750000 15.070000 # CT
 470 1 2 0.0 11.220000 29.860000 13.490000 # CM
 471 1 1 0.0 8.560000 28.390000 12.270000 # CT
 472 1 1 0.0 40.310000 46.170000 18.730000 # CT
 473 1 2 0.0 39.170000 43.640000 20.400000 # CM
 474 1 1 0.0 39.920000 41.250000 21.930000 # CT
 475 1 1 0.0 9.520000 31.280000 21.730000 # CT
 476 1 2 0.0 11.130000 33.340000 19.890000 # CM
 477 1 1 0.0 12.630000 35.790000 18.440000 # CT
 478 1 1 0.0 44.740000 25.620000 33.020000 # CT
 479 1 2 0.0 41.900000 26.140000 34.340000 # CM
 480 1 1 0.0 38.770000 26.490000 35.230000 # CT
 481 1 1 0.0 42.790000 4.570000 5.090000 # CT
 482 1 2 0.0 45.800000 5.860000 4.750000 # CM
 483 1 1 0.0 48.840000 5.600000 4.940000 # CT
 484 1 1 0.0 13.950000 29.810000 23.280000 # CT
 485 1 2 0.0 15.260000 31.090000 20.640000 # CM
 486 1 1 0.0 16.530000 32.960000 18.110000 # CT
 487 1 1 0.0 29.480000 26.980000 29.310000 # CT
 488 1 2 0.0 27.040000 27.500000 27.080000 # CM
 489 1 1 0.0 26.620000 28.730000 24.310000 # CT
 490 1 1 0.0 17.100000 14.030000 6.510000 # CT
 491 1 2 0.0 18.220000 14.830000 3.810000 # CM
 492 1 1 0.0 18.720000 14.480000 0.630000 # CT
 493 1 1 0.0 25.800000 1.680000 15.370000 # CT
 494 1 2 0.0 24.500000 0.470000 12.740000 # CM
 495 1 1 0.0 23.620000 -1.080000 10.050000 # CT
 496 1 1 0.0 15.950000 26.120000 41.920000 # CT
 497 1 2 0.0 13.500000 26.240000 44.050000 # CM
 498 1 1 0.0 13.100000 26.030000 46.920000 # CT
 499 1 1 0.0 37.080000 14.420000 9.760000 # CT
 500 1 2 0.0 34.100000 13.970000 11.020000 # CM
 501 1 1 0.0 31.040000 13.210000 11.680000 # CT
 502 1 1 0.0 20.020000 14.420000 36.060000 # CT
 503 1 2 0.0 17.400000 16.060000 37.140000 # CM
 504 1 1 0.0 15.180000 17.350000 39.030000 # CT
 505 1 1 0.0 28.870000 18.840000 32.130000 # CT
 506 1 2 0.0 29.370000 20.400000 35.080000 # CM
 507 1 1 0.0 28.010000 21.790000 37.430000 # CT
 508 1 1 0.0 32.010000 41.910000 40.990000 # CT
 509 1 2 0.0 32.530000 45.150000 40.670000 # CM
 510 1 1 0.0 33.260000 48.330000 41.050000 # CT
 511 1 1 0.0 31.050000 39.140000 1.680000 # CT
 512 1 2 0.0 32.400000 38.250000 4.220000 # CM
 513 1 1 0.0 34.250000 38.270000 6.950000 # CT
 514 1 1 0.0 12.520000 11.460000 36.690000 # CT
 515 1 2 0.0 12.040000 12.160000 39.410000 # CM
 516 1 1 0.0 13.510000 11.490000 42.280000 # CT
 517 1 1 0.0 2.740000 33.120000 4.850000 # CT
 518 1 2 0.0 3.070000 33.860000 7.730000 # CM
 519 1 1 0.0 1.750000 33.080000 10.220000 # CT
 520 1 1 0.0 15.630000 46.850000 44.650000 # CT
 521 1 2 0.0 17.050000 47.180000 41.780000 # CM
 522 1 1 0.0 18.700000 47.680000 39.100000 # CT
 523 1 1 0.0 29.140000 6.280000 23.650000 # CT
 524 1 2 0.0 27.370000 6.240000 26.350000 # CM
 525 1 1 0.0 25.350000 7.060000 28.320000 # CT
 526 1 1 0.0 11.430000 19.260000 22.770000 # CT
 527 1 2 0.0 13.580000 20.110000 25.140000 # CM
 528 1 1 0.0 15.060000 21.320000 27.660000 # CT
 529 1 1 0.0 24.180000 19.900000 38.760000 # CT
 530 1 2 0.0 25.780000 19.220000 41.170000 # CM
 531 1 1 0.0 26.720000 16.600000 42.960000 # CT
 532 1 1 0.0 35.070000 26.850000 27.590000 # CT
 533 1 2 0.0 37.720000 27.270000 25.750000 # CM
 534 1 1 0.0 40.800000 27.360000 24.580000 # CT
 535 1 1 0.0 27.440000 43.480000 7.190000 # CT
 536 1 2 0.0 28.310000 45.600000 9.530000 # CM
 537 1 1 0.0 27.800000 46.230000 12.390000 # CT
 538 1 1 0.0 21.530000 12.450000 4.190000 # CT
 539 1 2 0.0 22.670000 11.230000 7.110000 # CM
 540 1 1 0.0 24.020000 10.640000 10.100000 # CT
 541 1 1 0.0 17.690000 9.680000 5.190000 # CT
 542 1 2 0.0 17.680000 6.730000 4.690000 # CM
 543 1 1 0.0 17.880000 4.050000 6.570000 # CT
 544 1 1 0.0 43.210000 39.110000 14.330000 # CT
 545 1 2 0.0 42.220000 36.150000 13.330000 # CM
 546 1 1 0.0 41.630000 33.300000 11.860000 # CT
 547 1 1 0.0 45.860000 13.240000 47.980000 # CT
 548 1 2 0.0 46.210000 14.860000 50.450000 # CM
 549 1 1 0.0 46.420000 17.720000 51.880000 # CT
 550 1 1 0.0 22.160000 23.950000 34.440000 # CT
 551 1 2 0.0 19.730000 25.610000 35.900000 # CM
 552 1 1 0.0 18.060000 28.010000 35.740000 # CT
 553 1 1 0.0 24.700000 7.160000 44.100000 # CT
 554 1 2 0.0 25.740000 9.650000 42.960000 # CM
 555 1 1 0.0 28.700000 11.040000 42.570000 # CT
 556 1 1 0.0 25.830000 42.620000 24.290000 # CT
 557 1 2 0.0 26.140000 41.840000 21.430000 # CM
 558 1 1 0.0 25.330000 41.890000 18.310000 # CT
 559 1 1 0.0 33.210000 2.060000 7.660000 # CT
 560 1 2 0.0 30.110000 1.780000 8.530000 # CM
 561 1 1 0.0 27.030000 2.670000 9.250000 # CT
 562 1 1 0.0 28.120000 10.150000 5.150000 # CT
 563 1 2 0.0 29.220000 10.060000 2.170000 # CM
 564 1 1 0.0 30.830000 10.240000 -0.710000 # CT
 565 1 1 0.0 31.510000 30.390000 -0.680000 # CT
 566 1 2 0.0 29.290000 28.900000 -2.110000 # CM
 567 1 1 0.0 26.190000 27.820000 -2.510000 # CT
 568 1 1 0.0 47.950000 3.250000 16.440000 # CT
 569 1 2 0.0 45.070000 2.500000 16.790000 # CM
 570 1 1 0.0 43.440000 0.800000 18.720000 # CT
 571 1 1 0.0 20.180000 7.470000 26.290000 # CT
 572 1 2 0.0 22.820000 7.900000 24.590000 # CM
 573 1 1 0.0 25.130000 8.530000 22.350000 # CT
 574 1 1 0.0 29.970000 23.750000 15.710000 # CT
 575 1 2 0.0 31.290000 21.420000 17.150000 # CM
 576 1 1 0.0 31.990000 18.250000 16.780000 # CT
 577 1 1 0.0 19.930000 19.960000 14.400000 # CT
 578 1 2 0.0 19.210000 19.210000 11.330000 # CM
 579 1 1 0.0 19.330000 18.000000 8.320000 # CT
 580 1 1 0.0 16.540000 5.930000 23.780000 # CT
 581 1 2 0.0 18.450000 7.340000 21.420000 # CM
 582 1 1 0.0 21.040000 7.140000 19.820000 # CT
 583 1 1 0.0 19.140000 14.890000 31.230000 # CT
 584 1 2 0.0 17.040000 16.810000 32.450000 # CM
 585 1 1 0.0 16.020000 19.180000 34.410000 # CT
 586 1 1 0.0 33.440000 14.780000 20.050000 # CT
 587 1 2 0.0 30.420000 16.060000 20.270000 # CM
 588 1 1 0.0 27.460000 17.570000 20.090000 # CT
 589 1 1 0.0 20.150000 28.620000 11.320000 # CT
 590 1 2 0.0 19.690000 31.170000 9.700000 # CM
 591 1 1 0.0 18.480000 32.010000 6.800000 # CT
 592 1 1 0.0 19.440000 34.860000 13.960000 # CT
 593 1 2 0.0 17.470000 36.970000 14.650000 # CM
 594 1 1 0.0 16.080000 39.880000 14.380000 # CT
 595 1 1 0.0 40.880000 33.230000 45.180000 # CT
 596 1 2 0.0 39.920000 32.060000 48.060000 # CM
 597 1 1 0.0 38.900000 31.350000 51.130000 # CT
 598 1 1 0.0 6.560000 47.180000 15.210000 # CT
 599 1 2 0.0 7.020000 47.390000 12.000000 # CM
 600 1 1 0.0 7.120000 47.410000 8.840000 # CT
 601 1 1 0.0 17.760000 15.600000 19.730000 # CT
 602 1 2 0.0 16.210000 18.230000 19.350000 # CM
 603 1 1 0.0 14.200000 20.000000 17.510000 # CT
 604 1 1 0.0 12.400000 30.060000 41.160000 # CT
 605 1 2 0.0 13.710000 32.010000 43.450000 # CM
 606 1 1 0.0 14.680000 32.250000 46.220000 # CT
 607 1 1 0.0 21.950000 19.960000 43.970000 # CT
 608 1 2 0.0 20.790000 18.110000 41.550000 # CM
 609 1 1 0.0 21.690000 16.420000 39.480000 # CT
 610 1 1 0.0 48.440000 4.920000 47.760000 # CT
 611 1 2 0.0 48.430000 7.580000 49.230000 # CM
 612 1 1 0.0 49.620000 10.740000 49.770000 # CT
 613 1 1 0.0 28.790000 36.140000 47.530000 # CT
 614 1 2 0.0 30.990000 34.690000 48.740000 # CM
 615 1 1 0.0 34.080000 34.030000 49.360000 # CT
 616 1 1 0.0 15.260000 8.790000 27.410000 # CT
 617 1 2 0.0 15.470000 7.440000 30.420000 # CM
 618 1 1 0.0 14.340000 5.740000 32.360000 # CT
 619 1 1 0.0 27.540000 26.740000 36.410000 # CT
 620 1 2 0.0 28.680000 29.750000 36.690000 # CM
 621 1 1 0.0 29.130000 32.840000 37.620000 # CT
 622 1 1 0.0 2.600000 47.240000 33.310000 # CT